
FAST Summary File

Predictions were generated on 08-Jul-2019 at 16:46:05 using OpenFAST, compiled as a 64-bit application using single precision at commit Unversioned from 4dbbefa0
  compiled with
    NWTC Subroutine Library
    ElastoDyn
    BeamDyn [not called]
    InflowWind
    AeroDyn14 [not called]
    AeroDyn
    ServoDyn
    HydroDyn [not called]
    SubDyn [not called]
    ExtPtfm_MCKF [not called]
    MAP [not called]
    FEAMooring [not called]
    MoorDyn [not called]
    OrcaFlexInterface [not called]
    IceFloe [not called]
    IceDyn [not called]


Modeling a land-based turbine
Description from the FAST input file: 
  AeroElasticSE FAST driver

Interpolation order for input/output time histories: 2 (quadratic)
Number of correction iterations:  0


   Requested Time Steps  
  -------------------------------------------------
  Component          Time Step (s)    Subcycles (-)
  -----------------  ---------------  -------------
  FAST (glue code)    6.250E-03
  InflowWind          6.250E-03              1
  ElastoDyn           6.250E-03              1
  AeroDyn             6.250E-03              1
  ServoDyn            6.250E-03              1
  FAST output files   6.250E-03              1


   Requested Channels in FAST Output File(s)  
  --------------------------------------------
  Number  Name        Units       Generated by
  ------  ----------  ----------  ------------
       1  Time        (s)         OpenFAST
       2  Azimuth     (deg)       ElastoDyn
       3  BldPitch1   (deg)       ElastoDyn
       4  GenSpeed    (rpm)       ElastoDyn
       5  IPDefl1     (m)         ElastoDyn
       6  LSSGagMya   (kN-m)      ElastoDyn
       7  LSSGagMza   (kN-m)      ElastoDyn
       8  NacYaw      (deg)       ElastoDyn
       9  OoPDefl1    (m)         ElastoDyn
      10  RootFxb1    (kN)        ElastoDyn
      11  RootFxc1    (kN)        ElastoDyn
      12  RootFxc2    (kN)        ElastoDyn
      13  RootFxc3    (kN)        ElastoDyn
      14  RootFyb1    (kN)        ElastoDyn
      15  RootFyc1    (kN)        ElastoDyn
      16  RootFyc2    (kN)        ElastoDyn
      17  RootFyc3    (kN)        ElastoDyn
      18  RootFzb1    (kN)        ElastoDyn
      19  RootFzc1    (kN)        ElastoDyn
      20  RootFzc2    (kN)        ElastoDyn
      21  RootFzc3    (kN)        ElastoDyn
      22  RootMxb1    (kN-m)      ElastoDyn
      23  RootMxc1    (kN-m)      ElastoDyn
      24  RootMxc2    (kN-m)      ElastoDyn
      25  RootMxc3    (kN-m)      ElastoDyn
      26  RootMyb1    (kN-m)      ElastoDyn
      27  RootMyc1    (kN-m)      ElastoDyn
      28  RootMyc2    (kN-m)      ElastoDyn
      29  RootMyc3    (kN-m)      ElastoDyn
      30  RootMzb1    (kN-m)      ElastoDyn
      31  RootMzc1    (kN-m)      ElastoDyn
      32  RootMzc2    (kN-m)      ElastoDyn
      33  RootMzc3    (kN-m)      ElastoDyn
      34  RotSpeed    (rpm)       ElastoDyn
      35  RotThrust   (kN)        ElastoDyn
      36  RotTorq     (kN-m)      ElastoDyn
      37  Spn2MLxb1   (kN-m)      ElastoDyn
      38  Spn2MLyb1   (kN-m)      ElastoDyn
      39  TTDspFA     (m)         ElastoDyn
      40  TTDspSS     (m)         ElastoDyn
      41  TTDspTwst   (deg)       ElastoDyn
      42  TipDxc1     (m)         ElastoDyn
      43  TipDxc2     (m)         ElastoDyn
      44  TipDxc3     (m)         ElastoDyn
      45  TipDyc1     (m)         ElastoDyn
      46  TipDyc2     (m)         ElastoDyn
      47  TipDyc3     (m)         ElastoDyn
      48  TipDzc1     (m)         ElastoDyn
      49  TipDzc2     (m)         ElastoDyn
      50  TipDzc3     (m)         ElastoDyn
      51  TwrBsFxt    (kN)        ElastoDyn
      52  TwrBsFyt    (kN)        ElastoDyn
      53  TwrBsFzt    (kN)        ElastoDyn
      54  TwrBsMxt    (kN-m)      ElastoDyn
      55  TwrBsMyt    (kN-m)      ElastoDyn
      56  TwrBsMzt    (kN-m)      ElastoDyn
      57  TwstDefl1   (deg)       ElastoDyn
      58  YawBrFxp    (kN)        ElastoDyn
      59  YawBrFyp    (kN)        ElastoDyn
      60  YawBrFzp    (kN)        ElastoDyn
      61  YawBrMxp    (kN-m)      ElastoDyn
      62  YawBrMyp    (kN-m)      ElastoDyn
      63  YawBrMzp    (kN-m)      ElastoDyn
      64  B1N1Fx      (N/m)       AeroDyn
      65  B1N1Fy      (N/m)       AeroDyn
      66  B1N2Fx      (N/m)       AeroDyn
      67  B1N2Fy      (N/m)       AeroDyn
      68  B1N3Fx      (N/m)       AeroDyn
      69  B1N3Fy      (N/m)       AeroDyn
      70  B1N4Fx      (N/m)       AeroDyn
      71  B1N4Fy      (N/m)       AeroDyn
      72  B1N5Fx      (N/m)       AeroDyn
      73  B1N5Fy      (N/m)       AeroDyn
      74  B1N6Fx      (N/m)       AeroDyn
      75  B1N6Fy      (N/m)       AeroDyn
      76  B1N7Fx      (N/m)       AeroDyn
      77  B1N7Fy      (N/m)       AeroDyn
      78  B1N8Fx      (N/m)       AeroDyn
      79  B1N8Fy      (N/m)       AeroDyn
      80  B1N9Fx      (N/m)       AeroDyn
      81  B1N9Fy      (N/m)       AeroDyn
      82  RtAeroCp    (-)         AeroDyn
      83  RtAeroFxh   (N)         AeroDyn
      84  RtAeroFyh   (N)         AeroDyn
      85  RtAeroFzh   (N)         AeroDyn
      86  RtAeroMxh   (N-m)       AeroDyn
      87  RtAeroMyh   (N-m)       AeroDyn
      88  RtAeroMzh   (N-m)       AeroDyn
      89  GenPwr      (kW)        ServoDyn
      90  GenTq       (kN-m)      ServoDyn
