
FAST Summary File

Predictions were generated on 17-Jul-2019 at 11:23:39 using OpenFAST, compiled as a 64-bit application using single precision at commit v2.0.0-36-g8510fde8-dirty
  compiled with
    NWTC Subroutine Library
    ElastoDyn
    BeamDyn [not called]
    InflowWind
    AeroDyn14 [not called]
    AeroDyn
    ServoDyn
    HydroDyn [not called]
    SubDyn [not called]
    ExtPtfm_MCKF [not called]
    MAP [not called]
    FEAMooring [not called]
    MoorDyn [not called]
    OrcaFlexInterface [not called]
    IceFloe [not called]
    IceDyn [not called]


Modeling a land-based turbine
Description from the FAST input file: 
  AeroElasticSE FAST driver

Interpolation order for input/output time histories: 2 (quadratic)
Number of correction iterations:  0


   Requested Time Steps  
  -------------------------------------------------
  Component          Time Step (s)    Subcycles (-)
  -----------------  ---------------  -------------
  FAST (glue code)    1.000E-02
  InflowWind          1.000E-02              1
  ElastoDyn           1.000E-02              1
  AeroDyn             1.000E-02              1
  ServoDyn            1.000E-02              1
  FAST output files   1.000E-02              1


   Requested Channels in FAST Output File(s)  
  --------------------------------------------
  Number  Name        Units       Generated by
  ------  ----------  ----------  ------------
       1  Time        (s)         OpenFAST
       2  Wind1VelX   (m/s)       InflowWind
       3  Azimuth     (deg)       ElastoDyn
       4  BldPitch1   (deg)       ElastoDyn
       5  GenSpeed    (rpm)       ElastoDyn
       6  IPDefl1     (m)         ElastoDyn
       7  LSSGagMya   (kN-m)      ElastoDyn
       8  LSSGagMza   (kN-m)      ElastoDyn
       9  OoPDefl1    (m)         ElastoDyn
      10  RootFxb1    (kN)        ElastoDyn
      11  RootFyb1    (kN)        ElastoDyn
      12  RootFzb1    (kN)        ElastoDyn
      13  RootMxb1    (kN-m)      ElastoDyn
      14  RootMyb1    (kN-m)      ElastoDyn
      15  RootMzb1    (kN-m)      ElastoDyn
      16  RotSpeed    (rpm)       ElastoDyn
      17  RotThrust   (kN)        ElastoDyn
      18  RotTorq     (kN-m)      ElastoDyn
      19  Spn2MLxb1   (kN-m)      ElastoDyn
      20  Spn2MLyb1   (kN-m)      ElastoDyn
      21  TTDspFA     (m)         ElastoDyn
      22  TTDspSS     (m)         ElastoDyn
      23  TTDspTwst   (deg)       ElastoDyn
      24  TwrBsFxt    (kN)        ElastoDyn
      25  TwrBsFyt    (kN)        ElastoDyn
      26  TwrBsFzt    (kN)        ElastoDyn
      27  TwrBsMxt    (kN-m)      ElastoDyn
      28  TwrBsMyt    (kN-m)      ElastoDyn
      29  TwrBsMzt    (kN-m)      ElastoDyn
      30  TwstDefl1   (deg)       ElastoDyn
      31  YawBrFxp    (kN)        ElastoDyn
      32  YawBrFyp    (kN)        ElastoDyn
      33  YawBrFzp    (kN)        ElastoDyn
      34  YawBrMxp    (kN-m)      ElastoDyn
      35  YawBrMyp    (kN-m)      ElastoDyn
      36  YawBrMzp    (kN-m)      ElastoDyn
      37  RtAeroCp    (-)         AeroDyn
      38  RtAeroFxh   (N)         AeroDyn
      39  RtAeroFyh   (N)         AeroDyn
      40  RtAeroFzh   (N)         AeroDyn
      41  RtAeroMxh   (N-m)       AeroDyn
      42  RtAeroMyh   (N-m)       AeroDyn
      43  RtAeroMzh   (N-m)       AeroDyn
      44  GenPwr      (kW)        ServoDyn
      45  GenTq       (kN-m)      ServoDyn
